Start file for LAMMPS

500 atoms

2 atom types

0 7.469007910928608 xlo xhi
0 7.469007910928608 ylo yhi
0 7.469007910928608 zlo zhi

Atoms

1 1 6.722107119835747 0.0 3.734503955464304
2 1 0.7469007910928608 4.481404746557165 5.228305537650026
3 1 3.734503955464304 2.2407023732785825 1.4938015821857216
4 1 0.0 6.722107119835747 0.7469007910928608
5 1 1.4938015821857216 0.7469007910928608 6.722107119835747
6 1 2.987603164371443 2.987603164371443 5.975206328742886
7 1 1.4938015821857216 2.987603164371443 1.4938015821857216
8 1 5.975206328742886 3.734503955464304 2.2407023732785825
9 1 4.481404746557165 1.4938015821857216 4.481404746557165
10 1 0.0 2.987603164371443 0.0
11 1 2.987603164371443 0.7469007910928608 2.2407023732785825
12 1 5.975206328742886 2.2407023732785825 6.722107119835747
13 1 2.987603164371443 2.2407023732785825 5.228305537650026
14 1 1.4938015821857216 5.228305537650026 5.228305537650026
15 1 2.2407023732785825 2.987603164371443 6.722107119835747
16 1 6.722107119835747 2.987603164371443 2.2407023732785825
17 1 5.228305537650026 0.7469007910928608 5.975206328742886
18 1 1.4938015821857216 6.722107119835747 6.722107119835747
19 1 5.975206328742886 4.481404746557165 2.987603164371443
20 1 2.987603164371443 5.975206328742886 1.4938015821857216
21 1 6.722107119835747 5.228305537650026 2.987603164371443
22 1 3.734503955464304 6.722107119835747 1.4938015821857216
23 1 5.228305537650026 0.0 2.2407023732785825
24 1 2.2407023732785825 6.722107119835747 1.4938015821857216
25 1 4.481404746557165 3.734503955464304 0.7469007910928608
26 1 1.4938015821857216 5.228305537650026 6.722107119835747
27 1 5.975206328742886 2.987603164371443 4.481404746557165
28 1 0.0 6.722107119835747 6.722107119835747
29 1 5.228305537650026 0.0 6.722107119835747
30 1 0.7469007910928608 0.0 3.734503955464304
31 1 0.0 6.722107119835747 2.2407023732785825
32 1 0.7469007910928608 2.987603164371443 3.734503955464304
33 1 5.228305537650026 3.734503955464304 4.481404746557165
34 1 3.734503955464304 2.2407023732785825 0.0
35 1 0.7469007910928608 0.7469007910928608 0.0
36 1 3.734503955464304 0.0 2.2407023732785825
37 1 0.0 2.2407023732785825 3.734503955464304
38 1 6.722107119835747 5.228305537650026 1.4938015821857216
39 1 5.975206328742886 5.228305537650026 0.7469007910928608
40 1 3.734503955464304 0.0 0.7469007910928608
41 1 2.987603164371443 1.4938015821857216 4.481404746557165
42 1 4.481404746557165 2.987603164371443 4.481404746557165
43 1 3.734503955464304 0.7469007910928608 4.481404746557165
44 1 3.734503955464304 5.228305537650026 2.987603164371443
45 1 2.2407023732785825 0.0 2.2407023732785825
46 1 1.4938015821857216 0.7469007910928608 5.228305537650026
47 1 2.987603164371443 2.2407023732785825 6.722107119835747
48 1 1.4938015821857216 5.975206328742886 4.481404746557165
49 1 0.0 2.2407023732785825 6.722107119835747
50 1 4.481404746557165 0.0 0.0
51 1 0.7469007910928608 6.722107119835747 4.481404746557165
52 1 1.4938015821857216 4.481404746557165 2.987603164371443
53 1 5.228305537650026 2.2407023732785825 0.0
54 1 0.7469007910928608 0.0 0.7469007910928608
55 1 1.4938015821857216 0.0 0.0
56 1 5.228305537650026 0.7469007910928608 4.481404746557165
57 1 5.975206328742886 5.228305537650026 6.722107119835747
58 1 4.481404746557165 6.722107119835747 2.2407023732785825
59 1 6.722107119835747 6.722107119835747 0.0
60 1 4.481404746557165 2.2407023732785825 3.734503955464304
61 1 4.481404746557165 2.2407023732785825 5.228305537650026
62 1 4.481404746557165 5.228305537650026 3.734503955464304
63 1 4.481404746557165 2.987603164371443 1.4938015821857216
64 1 3.734503955464304 4.481404746557165 6.722107119835747
65 1 3.734503955464304 0.0 5.228305537650026
66 1 4.481404746557165 1.4938015821857216 5.975206328742886
67 1 6.722107119835747 5.975206328742886 3.734503955464304
68 1 3.734503955464304 5.228305537650026 5.975206328742886
69 1 1.4938015821857216 5.228305537650026 0.7469007910928608
70 1 5.975206328742886 2.987603164371443 0.0
71 1 5.228305537650026 5.975206328742886 2.2407023732785825
72 1 0.0 2.987603164371443 5.975206328742886
73 1 5.228305537650026 2.2407023732785825 5.975206328742886
74 1 5.975206328742886 5.975206328742886 5.975206328742886
75 1 0.0 4.481404746557165 0.0
76 1 1.4938015821857216 3.734503955464304 3.734503955464304
77 1 2.2407023732785825 4.481404746557165 6.722107119835747
78 1 4.481404746557165 2.987603164371443 5.975206328742886
79 1 3.734503955464304 6.722107119835747 2.987603164371443
80 1 4.481404746557165 4.481404746557165 1.4938015821857216
81 1 4.481404746557165 2.987603164371443 2.987603164371443
82 1 5.228305537650026 5.228305537650026 1.4938015821857216
83 1 3.734503955464304 5.975206328742886 2.2407023732785825
84 1 5.975206328742886 3.734503955464304 6.722107119835747
85 1 1.4938015821857216 2.987603164371443 5.975206328742886
86 1 5.975206328742886 5.228305537650026 3.734503955464304
87 1 0.7469007910928608 2.2407023732785825 0.0
88 1 0.0 2.2407023732785825 2.2407023732785825
89 1 0.0 6.722107119835747 3.734503955464304
90 1 3.734503955464304 5.228305537650026 0.0
91 1 4.481404746557165 5.975206328742886 4.481404746557165
92 1 3.734503955464304 6.722107119835747 0.0
93 1 0.7469007910928608 0.7469007910928608 4.481404746557165
94 1 0.0 0.7469007910928608 6.722107119835747
95 1 5.975206328742886 0.0 1.4938015821857216
96 1 0.7469007910928608 3.734503955464304 4.481404746557165
97 1 2.987603164371443 1.4938015821857216 2.987603164371443
98 1 0.0 5.975206328742886 2.987603164371443
99 1 0.0 1.4938015821857216 1.4938015821857216
100 1 3.734503955464304 5.975206328742886 6.722107119835747
101 1 5.228305537650026 1.4938015821857216 0.7469007910928608
102 1 6.722107119835747 6.722107119835747 5.975206328742886
103 1 5.975206328742886 0.0 5.975206328742886
104 1 5.228305537650026 5.975206328742886 6.722107119835747
105 1 0.0 0.7469007910928608 2.2407023732785825
106 1 1.4938015821857216 3.734503955464304 2.2407023732785825
107 1 5.228305537650026 1.4938015821857216 3.734503955464304
108 1 2.987603164371443 2.987603164371443 0.0
109 1 4.481404746557165 4.481404746557165 5.975206328742886
110 1 6.722107119835747 5.228305537650026 4.481404746557165
111 1 3.734503955464304 0.7469007910928608 1.4938015821857216
112 1 6.722107119835747 2.2407023732785825 5.975206328742886
113 1 5.975206328742886 3.734503955464304 3.734503955464304
114 1 1.4938015821857216 6.722107119835747 5.228305537650026
115 1 6.722107119835747 5.975206328742886 6.722107119835747
116 1 3.734503955464304 1.4938015821857216 3.734503955464304
117 1 5.975206328742886 1.4938015821857216 2.987603164371443
118 1 6.722107119835747 1.4938015821857216 2.2407023732785825
119 1 2.2407023732785825 0.0 3.734503955464304
120 1 5.975206328742886 2.2407023732785825 3.734503955464304
121 1 6.722107119835747 1.4938015821857216 5.228305537650026
122 1 2.2407023732785825 0.0 5.228305537650026
123 1 6.722107119835747 5.975206328742886 0.7469007910928608
124 1 5.228305537650026 2.987603164371443 6.722107119835747
125 1 0.0 2.2407023732785825 0.7469007910928608
126 1 4.481404746557165 2.987603164371443 0.0
127 1 6.722107119835747 5.228305537650026 5.975206328742886
128 1 3.734503955464304 4.481404746557165 3.734503955464304
129 1 3.734503955464304 1.4938015821857216 0.7469007910928608
130 1 0.0 1.4938015821857216 0.0
131 1 1.4938015821857216 0.7469007910928608 0.7469007910928608
132 1 4.481404746557165 2.2407023732785825 0.7469007910928608
133 1 5.228305537650026 6.722107119835747 1.4938015821857216
134 1 1.4938015821857216 1.4938015821857216 0.0
135 1 2.2407023732785825 2.2407023732785825 1.4938015821857216
136 1 2.2407023732785825 2.987603164371443 3.734503955464304
137 1 3.734503955464304 5.228305537650026 4.481404746557165
138 1 5.228305537650026 3.734503955464304 1.4938015821857216
139 1 6.722107119835747 4.481404746557165 6.722107119835747
140 1 2.2407023732785825 0.7469007910928608 1.4938015821857216
141 1 2.2407023732785825 3.734503955464304 4.481404746557165
142 1 0.0 5.228305537650026 2.2407023732785825
143 1 5.975206328742886 1.4938015821857216 5.975206328742886
144 1 0.0 4.481404746557165 5.975206328742886
145 1 2.987603164371443 2.987603164371443 4.481404746557165
146 1 2.2407023732785825 2.2407023732785825 5.975206328742886
147 1 5.975206328742886 5.228305537650026 2.2407023732785825
148 1 2.2407023732785825 1.4938015821857216 6.722107119835747
149 1 5.228305537650026 4.481404746557165 0.7469007910928608
150 1 6.722107119835747 6.722107119835747 4.481404746557165
151 1 1.4938015821857216 0.7469007910928608 2.2407023732785825
152 1 3.734503955464304 3.734503955464304 0.0
153 1 0.7469007910928608 1.4938015821857216 3.734503955464304
154 1 6.722107119835747 0.7469007910928608 0.0
155 1 5.975206328742886 5.975206328742886 1.4938015821857216
156 1 6.722107119835747 2.987603164371443 3.734503955464304
157 1 2.987603164371443 2.2407023732785825 3.734503955464304
158 1 2.987603164371443 0.0 1.4938015821857216
159 1 1.4938015821857216 2.987603164371443 4.481404746557165
160 1 3.734503955464304 2.2407023732785825 5.975206328742886
161 1 6.722107119835747 1.4938015821857216 3.734503955464304
162 1 1.4938015821857216 4.481404746557165 4.481404746557165
163 1 5.228305537650026 6.722107119835747 0.0
164 1 6.722107119835747 5.975206328742886 2.2407023732785825
165 1 6.722107119835747 4.481404746557165 5.228305537650026
166 1 2.987603164371443 5.975206328742886 0.0
167 1 1.4938015821857216 2.2407023732785825 0.7469007910928608
168 1 3.734503955464304 2.2407023732785825 2.987603164371443
169 1 0.0 5.975206328742886 0.0
170 1 6.722107119835747 4.481404746557165 2.2407023732785825
171 1 5.228305537650026 5.228305537650026 2.987603164371443
172 1 6.722107119835747 2.987603164371443 0.7469007910928608
173 1 3.734503955464304 2.987603164371443 2.2407023732785825
174 1 6.722107119835747 3.734503955464304 1.4938015821857216
175 1 2.987603164371443 3.734503955464304 6.722107119835747
176 1 5.975206328742886 2.2407023732785825 5.228305537650026
177 1 2.987603164371443 5.975206328742886 4.481404746557165
178 1 6.722107119835747 0.0 6.722107119835747
179 1 4.481404746557165 0.0 4.481404746557165
180 1 0.7469007910928608 0.7469007910928608 1.4938015821857216
181 1 0.7469007910928608 5.975206328742886 2.2407023732785825
182 1 2.987603164371443 4.481404746557165 0.0
183 1 1.4938015821857216 2.2407023732785825 2.2407023732785825
184 1 3.734503955464304 0.0 6.722107119835747
185 1 4.481404746557165 5.228305537650026 2.2407023732785825
186 1 6.722107119835747 1.4938015821857216 6.722107119835747
187 1 3.734503955464304 3.734503955464304 1.4938015821857216
188 1 5.975206328742886 4.481404746557165 5.975206328742886
189 1 3.734503955464304 1.4938015821857216 2.2407023732785825
190 1 0.7469007910928608 3.734503955464304 1.4938015821857216
191 1 1.4938015821857216 5.228305537650026 3.734503955464304
192 1 2.2407023732785825 5.228305537650026 5.975206328742886
193 1 2.987603164371443 5.975206328742886 5.975206328742886
194 1 3.734503955464304 3.734503955464304 2.987603164371443
195 1 0.7469007910928608 2.2407023732785825 1.4938015821857216
196 1 5.228305537650026 6.722107119835747 4.481404746557165
197 1 6.722107119835747 5.228305537650026 0.0
198 1 2.987603164371443 2.2407023732785825 2.2407023732785825
199 1 0.7469007910928608 2.2407023732785825 4.481404746557165
200 1 4.481404746557165 5.228305537650026 0.7469007910928608
201 1 2.2407023732785825 0.7469007910928608 5.975206328742886
202 1 6.722107119835747 3.734503955464304 5.975206328742886
203 1 5.228305537650026 1.4938015821857216 5.228305537650026
204 1 2.987603164371443 5.975206328742886 2.987603164371443
205 1 0.0 5.228305537650026 6.722107119835747
206 1 5.228305537650026 1.4938015821857216 6.722107119835747
207 1 0.0 5.228305537650026 5.228305537650026
208 1 5.975206328742886 1.4938015821857216 4.481404746557165
209 1 0.0 3.734503955464304 0.7469007910928608
210 1 5.975206328742886 6.722107119835747 3.734503955464304
211 1 0.7469007910928608 4.481404746557165 0.7469007910928608
212 1 6.722107119835747 4.481404746557165 3.734503955464304
213 1 3.734503955464304 5.228305537650026 1.4938015821857216
214 1 4.481404746557165 4.481404746557165 2.987603164371443
215 1 2.2407023732785825 4.481404746557165 3.734503955464304
216 1 2.987603164371443 2.987603164371443 1.4938015821857216
217 1 5.228305537650026 5.228305537650026 4.481404746557165
218 1 1.4938015821857216 0.0 2.987603164371443
219 1 0.0 1.4938015821857216 2.987603164371443
220 1 5.228305537650026 2.987603164371443 2.2407023732785825
221 1 3.734503955464304 0.7469007910928608 5.975206328742886
222 1 2.987603164371443 3.734503955464304 2.2407023732785825
223 1 5.975206328742886 1.4938015821857216 1.4938015821857216
224 1 0.0 4.481404746557165 2.987603164371443
225 1 2.2407023732785825 5.228305537650026 0.0
226 1 2.987603164371443 0.0 4.481404746557165
227 1 6.722107119835747 6.722107119835747 1.4938015821857216
228 1 0.0 3.734503955464304 2.2407023732785825
229 1 3.734503955464304 2.2407023732785825 4.481404746557165
230 1 0.0 3.734503955464304 6.722107119835747
231 1 2.987603164371443 2.987603164371443 2.987603164371443
232 1 0.0 1.4938015821857216 4.481404746557165
233 1 2.987603164371443 4.481404746557165 4.481404746557165
234 1 2.987603164371443 0.7469007910928608 0.7469007910928608
235 1 1.4938015821857216 6.722107119835747 3.734503955464304
236 1 3.734503955464304 3.734503955464304 5.975206328742886
237 1 2.2407023732785825 6.722107119835747 2.987603164371443
238 1 5.228305537650026 0.7469007910928608 0.0
239 1 3.734503955464304 2.987603164371443 0.7469007910928608
240 1 2.987603164371443 6.722107119835747 0.7469007910928608
241 1 2.987603164371443 4.481404746557165 2.987603164371443
242 1 0.7469007910928608 2.987603164371443 0.7469007910928608
243 1 1.4938015821857216 5.975206328742886 0.0
244 1 6.722107119835747 2.2407023732785825 2.987603164371443
245 1 2.987603164371443 6.722107119835747 2.2407023732785825
246 1 5.975206328742886 3.734503955464304 5.228305537650026
247 1 5.228305537650026 0.0 0.7469007910928608
248 1 2.987603164371443 5.228305537650026 2.2407023732785825
249 1 5.975206328742886 2.987603164371443 2.987603164371443
250 1 4.481404746557165 3.734503955464304 6.722107119835747
251 1 5.228305537650026 3.734503955464304 5.975206328742886
252 1 5.228305537650026 3.734503955464304 2.987603164371443
253 1 1.4938015821857216 3.734503955464304 5.228305537650026
254 1 0.7469007910928608 0.0 2.2407023732785825
255 1 0.0 0.7469007910928608 0.7469007910928608
256 1 5.228305537650026 4.481404746557165 3.734503955464304
257 1 2.987603164371443 0.7469007910928608 3.734503955464304
258 1 3.734503955464304 0.7469007910928608 2.987603164371443
259 1 5.975206328742886 5.228305537650026 5.228305537650026
260 1 2.987603164371443 0.0 2.987603164371443
261 1 0.7469007910928608 5.975206328742886 5.228305537650026
262 1 4.481404746557165 6.722107119835747 5.228305537650026
263 1 0.0 0.0 0.0
264 1 4.481404746557165 3.734503955464304 5.228305537650026
265 1 6.722107119835747 2.2407023732785825 1.4938015821857216
266 1 2.2407023732785825 0.7469007910928608 2.987603164371443
267 1 3.734503955464304 6.722107119835747 5.975206328742886
268 1 5.975206328742886 0.0 2.987603164371443
269 1 5.228305537650026 4.481404746557165 6.722107119835747
270 1 0.7469007910928608 5.975206328742886 0.7469007910928608
271 1 0.0 2.987603164371443 2.987603164371443
272 1 1.4938015821857216 1.4938015821857216 2.987603164371443
273 1 0.7469007910928608 5.975206328742886 3.734503955464304
274 1 5.228305537650026 1.4938015821857216 2.2407023732785825
275 1 1.4938015821857216 1.4938015821857216 5.975206328742886
276 1 0.7469007910928608 5.228305537650026 0.0
277 1 5.975206328742886 5.975206328742886 0.0
278 1 0.7469007910928608 5.228305537650026 5.975206328742886
279 1 2.987603164371443 3.734503955464304 0.7469007910928608
280 1 2.2407023732785825 0.7469007910928608 4.481404746557165
281 1 4.481404746557165 6.722107119835747 0.7469007910928608
282 1 1.4938015821857216 5.975206328742886 1.4938015821857216
283 1 4.481404746557165 6.722107119835747 6.722107119835747
284 1 5.228305537650026 5.975206328742886 5.228305537650026
285 1 1.4938015821857216 5.228305537650026 2.2407023732785825
286 1 2.2407023732785825 4.481404746557165 2.2407023732785825
287 1 2.2407023732785825 2.2407023732785825 0.0
288 1 3.734503955464304 3.734503955464304 4.481404746557165
289 1 5.228305537650026 6.722107119835747 2.987603164371443
290 1 2.2407023732785825 5.975206328742886 5.228305537650026
291 1 4.481404746557165 1.4938015821857216 2.987603164371443
292 1 5.228305537650026 5.228305537650026 0.0
293 1 0.7469007910928608 5.228305537650026 1.4938015821857216
294 1 2.2407023732785825 5.228305537650026 2.987603164371443
295 1 0.7469007910928608 1.4938015821857216 6.722107119835747
296 1 5.228305537650026 4.481404746557165 5.228305537650026
297 1 1.4938015821857216 5.975206328742886 2.987603164371443
298 1 2.2407023732785825 2.987603164371443 2.2407023732785825
299 1 0.0 2.987603164371443 1.4938015821857216
300 1 4.481404746557165 0.7469007910928608 3.734503955464304
301 1 2.2407023732785825 2.987603164371443 0.7469007910928608
302 1 2.2407023732785825 3.734503955464304 1.4938015821857216
303 1 0.0 3.734503955464304 3.734503955464304
304 1 1.4938015821857216 2.987603164371443 0.0
305 1 4.481404746557165 3.734503955464304 3.734503955464304
306 1 2.987603164371443 0.0 0.0
307 1 0.0 2.987603164371443 4.481404746557165
308 1 5.228305537650026 2.2407023732785825 4.481404746557165
309 1 0.7469007910928608 5.228305537650026 4.481404746557165
310 1 2.2407023732785825 3.734503955464304 5.975206328742886
311 1 4.481404746557165 4.481404746557165 4.481404746557165
312 1 0.0 5.228305537650026 3.734503955464304
313 1 4.481404746557165 0.7469007910928608 2.2407023732785825
314 1 4.481404746557165 5.228305537650026 6.722107119835747
315 1 1.4938015821857216 1.4938015821857216 4.481404746557165
316 1 0.0 0.7469007910928608 5.228305537650026
317 1 2.2407023732785825 1.4938015821857216 5.228305537650026
318 1 2.987603164371443 1.4938015821857216 1.4938015821857216
319 1 1.4938015821857216 0.0 1.4938015821857216
320 1 5.228305537650026 0.0 3.734503955464304
321 1 2.987603164371443 1.4938015821857216 0.0
322 1 5.975206328742886 4.481404746557165 4.481404746557165
323 1 3.734503955464304 0.0 3.734503955464304
324 1 0.7469007910928608 2.2407023732785825 2.987603164371443
325 1 5.228305537650026 2.2407023732785825 1.4938015821857216
326 1 0.0 0.0 2.987603164371443
327 1 2.2407023732785825 3.734503955464304 0.0
328 1 0.7469007910928608 2.987603164371443 2.2407023732785825
329 1 0.7469007910928608 3.734503955464304 0.0
330 1 5.228305537650026 5.228305537650026 5.975206328742886
331 1 5.228305537650026 3.734503955464304 0.0
332 1 0.0 0.7469007910928608 3.734503955464304
333 1 4.481404746557165 5.228305537650026 5.228305537650026
334 1 2.2407023732785825 1.4938015821857216 2.2407023732785825
335 1 4.481404746557165 0.7469007910928608 5.228305537650026
336 1 0.7469007910928608 1.4938015821857216 5.228305537650026
337 1 2.2407023732785825 5.975206328742886 6.722107119835747
338 1 2.2407023732785825 5.228305537650026 1.4938015821857216
339 1 0.7469007910928608 1.4938015821857216 0.7469007910928608
340 1 5.228305537650026 5.975206328742886 3.734503955464304
341 1 0.7469007910928608 4.481404746557165 6.722107119835747
342 1 2.2407023732785825 0.0 0.7469007910928608
343 1 0.0 5.975206328742886 5.975206328742886
344 1 1.4938015821857216 2.2407023732785825 3.734503955464304
345 1 2.2407023732785825 4.481404746557165 5.228305537650026
346 1 2.987603164371443 5.228305537650026 5.228305537650026
347 1 5.975206328742886 6.722107119835747 2.2407023732785825
348 1 0.7469007910928608 6.722107119835747 1.4938015821857216
349 1 5.975206328742886 6.722107119835747 5.228305537650026
350 1 6.722107119835747 1.4938015821857216 0.7469007910928608
351 1 5.975206328742886 6.722107119835747 6.722107119835747
352 1 5.975206328742886 5.975206328742886 4.481404746557165
353 1 6.722107119835747 2.2407023732785825 0.0
354 1 4.481404746557165 5.975206328742886 5.975206328742886
355 1 6.722107119835747 0.7469007910928608 1.4938015821857216
356 1 2.2407023732785825 1.4938015821857216 0.7469007910928608
357 1 2.987603164371443 6.722107119835747 6.722107119835747
358 1 5.975206328742886 0.7469007910928608 5.228305537650026
359 1 6.722107119835747 0.7469007910928608 5.975206328742886
360 1 5.975206328742886 2.987603164371443 1.4938015821857216
361 1 0.7469007910928608 1.4938015821857216 2.2407023732785825
362 1 0.0 5.228305537650026 0.7469007910928608
363 1 1.4938015821857216 4.481404746557165 0.0
364 1 0.7469007910928608 4.481404746557165 2.2407023732785825
365 1 3.734503955464304 2.987603164371443 6.722107119835747
366 1 4.481404746557165 3.734503955464304 2.2407023732785825
367 1 2.987603164371443 0.0 5.975206328742886
368 1 0.7469007910928608 0.0 6.722107119835747
369 1 2.987603164371443 1.4938015821857216 5.975206328742886
370 1 6.722107119835747 2.987603164371443 5.228305537650026
371 1 1.4938015821857216 1.4938015821857216 1.4938015821857216
372 1 2.2407023732785825 4.481404746557165 0.7469007910928608
373 1 3.734503955464304 5.975206328742886 3.734503955464304
374 1 2.987603164371443 5.228305537650026 0.7469007910928608
375 1 5.975206328742886 2.2407023732785825 0.7469007910928608
376 1 5.975206328742886 2.987603164371443 5.975206328742886
377 1 2.987603164371443 5.228305537650026 6.722107119835747
378 1 0.7469007910928608 2.2407023732785825 5.975206328742886
379 1 2.987603164371443 2.2407023732785825 0.7469007910928608
380 1 1.4938015821857216 3.734503955464304 0.7469007910928608
381 1 5.975206328742886 0.0 4.481404746557165
382 1 5.975206328742886 0.7469007910928608 3.734503955464304
383 1 5.975206328742886 0.7469007910928608 0.7469007910928608
384 1 6.722107119835747 0.7469007910928608 4.481404746557165
385 1 1.4938015821857216 2.987603164371443 2.987603164371443
386 1 3.734503955464304 0.7469007910928608 0.0
387 1 0.7469007910928608 2.987603164371443 5.228305537650026
388 1 3.734503955464304 5.975206328742886 5.228305537650026
389 1 6.722107119835747 5.975206328742886 5.228305537650026
390 1 5.975206328742886 2.2407023732785825 2.2407023732785825
391 1 2.2407023732785825 5.228305537650026 4.481404746557165
392 1 1.4938015821857216 5.975206328742886 5.975206328742886
393 1 6.722107119835747 0.7469007910928608 2.987603164371443
394 1 3.734503955464304 4.481404746557165 2.2407023732785825
395 1 5.975206328742886 3.734503955464304 0.7469007910928608
396 1 2.987603164371443 3.734503955464304 3.734503955464304
397 1 3.734503955464304 4.481404746557165 5.228305537650026
398 1 2.2407023732785825 5.975206328742886 3.734503955464304
399 1 6.722107119835747 3.734503955464304 2.987603164371443
400 1 1.4938015821857216 0.0 4.481404746557165
401 2 1.4938015821857216 2.2407023732785825 5.228305537650026
402 2 0.0 5.975206328742886 1.4938015821857216
403 2 3.734503955464304 2.987603164371443 5.228305537650026
404 2 5.228305537650026 2.987603164371443 0.7469007910928608
405 2 5.228305537650026 5.975206328742886 0.7469007910928608
406 2 2.2407023732785825 0.7469007910928608 0.0
407 2 0.7469007910928608 4.481404746557165 3.734503955464304
408 2 0.7469007910928608 5.228305537650026 2.987603164371443
409 2 1.4938015821857216 6.722107119835747 2.2407023732785825
410 2 5.975206328742886 0.7469007910928608 6.722107119835747
411 2 2.987603164371443 4.481404746557165 5.975206328742886
412 2 6.722107119835747 6.722107119835747 2.987603164371443
413 2 5.975206328742886 5.975206328742886 2.987603164371443
414 2 2.987603164371443 0.7469007910928608 6.722107119835747
415 2 2.2407023732785825 6.722107119835747 5.975206328742886
416 2 2.2407023732785825 0.0 6.722107119835747
417 2 4.481404746557165 0.7469007910928608 0.7469007910928608
418 2 4.481404746557165 1.4938015821857216 1.4938015821857216
419 2 1.4938015821857216 4.481404746557165 1.4938015821857216
420 2 0.7469007910928608 5.975206328742886 6.722107119835747
421 2 5.975206328742886 6.722107119835747 0.7469007910928608
422 2 0.7469007910928608 3.734503955464304 5.975206328742886
423 2 0.7469007910928608 6.722107119835747 0.0
424 2 0.0 0.0 5.975206328742886
425 2 0.7469007910928608 2.987603164371443 6.722107119835747
426 2 5.975206328742886 4.481404746557165 0.0
427 2 4.481404746557165 4.481404746557165 0.0
428 2 6.722107119835747 0.0 0.7469007910928608
429 2 5.228305537650026 2.987603164371443 5.228305537650026
430 2 5.975206328742886 0.0 0.0
431 2 6.722107119835747 2.2407023732785825 4.481404746557165
432 2 4.481404746557165 6.722107119835747 3.734503955464304
433 2 6.722107119835747 4.481404746557165 0.7469007910928608
434 2 0.0 2.2407023732785825 5.228305537650026
435 2 6.722107119835747 3.734503955464304 4.481404746557165
436 2 2.2407023732785825 5.975206328742886 0.7469007910928608
437 2 3.734503955464304 1.4938015821857216 6.722107119835747
438 2 5.228305537650026 0.7469007910928608 2.987603164371443
439 2 4.481404746557165 1.4938015821857216 0.0
440 2 2.987603164371443 6.722107119835747 3.734503955464304
441 2 2.2407023732785825 6.722107119835747 4.481404746557165
442 2 0.7469007910928608 3.734503955464304 2.987603164371443
443 2 4.481404746557165 0.0 1.4938015821857216
444 2 0.7469007910928608 0.0 5.228305537650026
445 2 2.2407023732785825 3.734503955464304 2.987603164371443
446 2 5.228305537650026 2.2407023732785825 2.987603164371443
447 2 1.4938015821857216 0.0 5.975206328742886
448 2 0.7469007910928608 0.7469007910928608 5.975206328742886
449 2 6.722107119835747 0.0 2.2407023732785825
450 2 0.0 1.4938015821857216 5.975206328742886
451 2 5.228305537650026 4.481404746557165 2.2407023732785825
452 2 5.975206328742886 0.7469007910928608 2.2407023732785825
453 2 2.2407023732785825 5.975206328742886 2.2407023732785825
454 2 5.975206328742886 1.4938015821857216 0.0
455 2 5.228305537650026 6.722107119835747 5.975206328742886
456 2 1.4938015821857216 6.722107119835747 0.7469007910928608
457 2 4.481404746557165 5.975206328742886 0.0
458 2 3.734503955464304 2.987603164371443 3.734503955464304
459 2 5.228305537650026 0.0 5.228305537650026
460 2 2.2407023732785825 2.2407023732785825 4.481404746557165
461 2 4.481404746557165 0.0 5.975206328742886
462 2 4.481404746557165 2.2407023732785825 2.2407023732785825
463 2 4.481404746557165 0.0 2.987603164371443
464 2 2.987603164371443 3.734503955464304 5.228305537650026
465 2 6.722107119835747 2.987603164371443 6.722107119835747
466 2 0.0 5.975206328742886 4.481404746557165
467 2 3.734503955464304 1.4938015821857216 5.228305537650026
468 2 0.0 0.0 4.481404746557165
469 2 4.481404746557165 2.2407023732785825 6.722107119835747
470 2 6.722107119835747 3.734503955464304 0.0
471 2 4.481404746557165 5.975206328742886 1.4938015821857216
472 2 2.2407023732785825 2.987603164371443 5.228305537650026
473 2 3.734503955464304 4.481404746557165 0.7469007910928608
474 2 0.7469007910928608 6.722107119835747 2.987603164371443
475 2 5.228305537650026 0.7469007910928608 1.4938015821857216
476 2 2.987603164371443 0.7469007910928608 5.228305537650026
477 2 1.4938015821857216 2.2407023732785825 6.722107119835747
478 2 2.2407023732785825 6.722107119835747 0.0
479 2 3.734503955464304 5.975206328742886 0.7469007910928608
480 2 0.0 0.0 1.4938015821857216
481 2 5.975206328742886 4.481404746557165 1.4938015821857216
482 2 0.0 6.722107119835747 5.228305537650026
483 2 2.987603164371443 4.481404746557165 1.4938015821857216
484 2 0.7469007910928608 0.7469007910928608 2.987603164371443
485 2 2.2407023732785825 2.2407023732785825 2.987603164371443
486 2 4.481404746557165 5.975206328742886 2.987603164371443
487 2 1.4938015821857216 0.7469007910928608 3.734503955464304
488 2 0.0 4.481404746557165 1.4938015821857216
489 2 1.4938015821857216 3.734503955464304 6.722107119835747
490 2 2.2407023732785825 1.4938015821857216 3.734503955464304
491 2 0.7469007910928608 6.722107119835747 5.975206328742886
492 2 2.987603164371443 5.228305537650026 3.734503955464304
493 2 2.987603164371443 6.722107119835747 5.228305537650026
494 2 4.481404746557165 0.7469007910928608 6.722107119835747
495 2 5.228305537650026 2.987603164371443 3.734503955464304
496 2 1.4938015821857216 4.481404746557165 5.975206328742886
497 2 3.734503955464304 6.722107119835747 4.481404746557165
498 2 0.0 4.481404746557165 4.481404746557165
499 2 0.0 3.734503955464304 5.228305537650026
500 2 6.722107119835747 0.0 5.228305537650026
