ITEM: TIMESTEP
0
ITEM: NUMBER OF ATOMS
500
ITEM: BOX BOUNDS pp pp pp
-4.6373378988119607e-02 2.0046373378980057e+01
-4.6373378988119607e-02 2.0046373378980057e+01
-4.6373378988119607e-02 2.0046373378980057e+01
ITEM: ATOMS id type xs ys zs 
1 1 0.963067 0.0801815 0.306234 
2 1 0.354801 0.999051 0.320698 
3 1 0.734735 0.396915 0.43706 
4 1 0.367378 0.182151 0.966564 
5 1 0.731944 0.521663 0.309696 
6 1 0.0346506 0.116364 0.989823 
7 1 0.486273 0.57092 0.304303 
8 1 0.472804 0.164199 0.904985 
9 1 0.535035 0.745634 0.180096 
10 1 0.304835 0.337416 0.275289 
11 1 0.658968 0.56719 0.109431 
12 1 0.897929 0.15819 0.70555 
13 1 0.655558 0.37651 0.181273 
14 1 0.121692 0.381837 0.942412 
15 1 0.887614 0.136064 0.990079 
16 1 0.658713 0.767589 0.965014 
17 1 0.351015 0.607031 0.483036 
18 1 0.692587 0.285471 0.497895 
19 1 0.3555 0.85402 0.513543 
20 1 0.502389 0.0504424 0.852143 
21 1 0.947234 0.936314 0.0998058 
22 1 0.395218 0.75407 0.268485 
23 1 0.176754 0.420209 0.669986 
24 1 0.121621 0.752702 0.419156 
25 1 0.598058 0.138991 0.274068 
26 1 0.141592 0.912484 0.850488 
27 1 0.862791 0.682229 0.344876 
28 1 0.450305 0.293892 0.456968 
29 1 0.0880633 0.106886 0.105642 
30 1 0.701055 0.269924 0.121065 
31 1 0.795885 0.985553 0.207364 
32 1 0.48073 0.504606 0.188651 
33 1 0.812361 0.649485 0.459433 
34 1 0.659024 0.166676 0.546571 
35 1 0.518764 0.170243 0.641636 
36 1 0.910918 0.461932 0.838606 
37 1 0.589164 0.360163 0.292558 
38 1 0.13905 0.624052 0.4698 
39 1 0.688352 0.85443 0.497475 
40 1 0.306013 0.421424 0.477999 
41 1 0.906141 0.748751 0.4429 
42 1 0.613824 0.577326 0.333609 
43 1 0.697782 0.157875 0.175841 
44 1 0.93391 0.745977 0.628633 
45 1 0.746228 0.510375 0.978715 
46 1 0.149895 0.902682 0.0462071 
47 1 0.00347224 0.816346 0.417505 
48 1 0.790541 0.889773 0.306219 
49 1 0.405926 0.801367 0.0222409 
50 1 0.961048 0.701048 0.0909472 
51 1 0.893026 0.92248 0.226914 
52 1 0.0508701 0.0203483 0.698897 
53 1 0.763605 0.386273 0.96035 
54 1 0.214391 0.0423768 0.275578 
55 1 0.0934787 0.369271 0.723427 
56 1 0.732912 0.0966906 0.598706 
57 1 0.885547 0.232356 0.493755 
58 1 0.0881306 0.841395 0.516646 
59 1 0.560697 0.049239 0.72559 
60 1 0.740198 0.658658 0.14165 
61 1 0.681406 0.065206 0.495056 
62 1 0.00569757 0.645756 0.643875 
63 1 0.171685 0.254625 0.454105 
64 1 0.54556 0.492474 0.693765 
65 1 0.656051 0.191854 0.87209 
66 1 0.220194 0.457917 0.993367 
67 1 0.192568 0.792675 0.31066 
68 1 0.0188984 0.892802 0.212226 
69 1 0.347461 0.292988 0.0704931 
70 1 0.318805 0.114599 0.328204 
71 1 0.718367 0.87622 0.71131 
72 1 0.463335 0.559708 0.772055 
73 1 0.520806 0.92906 0.577759 
74 1 0.687112 0.596466 0.232619 
75 1 0.672029 0.230098 0.751144 
76 1 0.841664 0.253068 0.764182 
77 1 0.294147 0.401009 0.722673 
78 1 0.965228 0.319589 0.503681 
79 1 0.81127 0.935491 0.928224 
80 1 0.547171 0.348466 0.963739 
81 1 0.446015 0.268727 0.124793 
82 1 0.898314 0.871895 0.00170343 
83 1 0.628165 0.552072 0.984048 
84 1 0.656065 0.719943 0.20898 
85 1 0.310591 0.678983 0.690281 
86 1 0.223848 0.0352008 0.879307 
87 1 0.337926 0.416694 0.0272297 
88 1 0.973954 0.174856 0.207464 
89 1 0.0963346 0.67675 0.740756 
90 1 0.110695 0.908772 0.718226 
91 1 0.80825 0.545604 0.638247 
92 1 0.926 0.706867 0.243453 
93 1 0.563983 0.232513 0.947267 
94 1 0.54223 0.492547 0.567003 
95 1 0.143092 0.640857 0.997644 
96 1 0.118415 0.651152 0.604573 
97 1 0.480881 0.859697 0.679317 
98 1 0.873556 0.0506471 0.108469 
99 1 0.329481 0.429492 0.355955 
100 1 0.0265233 0.758584 0.171801 
101 1 0.393096 0.667186 0.6003 
102 1 0.987762 0.426646 0.963353 
103 1 0.199872 0.714169 0.914841 
104 1 0.0868791 0.290199 0.35074 
105 1 0.238346 0.16527 0.234216 
106 1 0.170854 0.478698 0.87222 
107 1 0.143306 0.707749 0.205496 
108 1 0.645936 0.495078 0.786503 
109 1 0.955003 0.137219 0.0975051 
110 1 0.927106 0.542813 0.64454 
111 1 0.00539333 0.205705 0.333953 
112 1 0.390924 0.206163 0.508622 
113 1 0.26779 0.480899 0.123124 
114 1 0.0265884 0.316689 0.92025 
115 1 0.0514481 0.872049 0.101422 
116 1 0.681221 0.565659 0.877529 
117 1 0.680619 0.926467 0.26993 
118 1 0.254583 0.22442 0.0116301 
119 1 0.334704 0.902854 0.984757 
120 1 0.158168 0.449773 0.107433 
121 1 0.843446 0.419586 0.635481 
122 1 0.835748 0.432132 0.377511 
123 1 0.129644 0.912197 0.279235 
124 1 0.980448 0.430943 0.253772 
125 1 0.372353 0.977779 0.734876 
126 1 0.0240234 0.928526 0.467365 
127 1 0.190876 0.192053 0.115265 
128 1 0.784942 0.826734 0.96352 
129 1 0.20072 0.690876 0.109718 
130 1 0.930314 0.941997 0.873102 
131 1 0.617988 0.656382 0.921602 
132 1 0.511405 0.625201 0.965825 
133 1 0.157669 0.536156 0.56632 
134 1 0.951368 0.673389 0.880956 
135 1 0.605142 0.654694 0.430382 
136 1 0.140755 0.306776 0.148095 
137 1 0.1707 0.734622 0.532435 
138 1 0.536059 0.729426 0.68007 
139 1 0.526467 0.480493 0.96208 
140 1 0.939957 0.968483 0.529354 
141 1 0.361639 0.304637 0.703718 
142 1 0.305275 0.831139 0.24137 
143 1 0.392649 0.36233 0.80839 
144 1 0.0418075 0.104283 0.401359 
145 1 0.943687 0.487195 0.360415 
146 1 0.405372 0.968851 0.547006 
147 1 0.426689 0.389447 0.930713 
148 1 0.0592932 0.421776 0.360519 
149 1 0.307613 0.607017 0.12619 
150 1 0.135352 0.239269 0.576732 
151 1 0.37547 0.930126 0.191358 
152 1 0.393968 0.525536 0.395277 
153 1 0.857404 0.153752 0.581973 
154 1 0.464229 0.99377 0.244405 
155 1 0.471046 0.708743 0.0662541 
156 1 0.348895 0.614655 0.807189 
157 1 0.35494 0.737705 0.796072 
158 1 0.749778 0.442932 0.703822 
159 1 0.155833 0.511726 0.344932 
160 1 0.0437771 0.924831 0.605873 
161 1 0.275195 0.299356 0.814539 
162 1 0.839187 0.700679 0.810271 
163 1 0.864536 0.652319 0.69487 
164 1 0.77376 0.177523 0.482368 
165 1 0.0475721 0.496379 0.148249 
166 1 0.752785 0.0925316 0.395732 
167 1 0.0934457 0.232873 0.700813 
168 1 0.369941 0.480983 0.788597 
169 1 0.389052 0.887066 0.303276 
170 1 0.560623 0.381312 0.628656 
171 1 0.437398 0.0264593 0.119609 
172 1 0.99424 0.693038 0.356909 
173 1 0.648915 0.315185 0.382991 
174 1 0.130136 0.459477 0.466976 
175 1 0.390951 0.510062 0.102787 
176 1 0.762035 0.462867 0.551515 
177 1 0.950857 0.421457 0.575869 
178 1 0.969964 0.546461 0.916854 
179 1 0.47534 0.971416 0.363872 
180 1 0.540539 0.408938 0.172399 
181 1 0.566298 0.705352 0.557486 
182 1 0.493634 0.388332 0.530028 
183 1 0.943826 0.589169 0.304939 
184 1 0.848721 0.676475 0.143591 
185 1 0.080501 0.445406 0.58523 
186 1 0.26944 0.234783 0.327587 
187 1 0.205092 0.6021 0.673162 
188 1 0.579905 0.995752 0.272562 
189 1 0.302676 0.763674 0.588703 
190 1 0.841571 0.562946 0.360759 
191 1 0.365173 0.938188 0.425935 
192 1 0.843878 0.0448862 0.893508 
193 1 0.299915 0.851868 0.110476 
194 1 0.409613 0.32215 0.331905 
195 1 0.785543 0.256066 0.219506 
196 1 0.176963 0.283119 0.260838 
197 1 0.551794 0.982991 0.0451227 
198 1 0.269046 0.259368 0.171199 
199 1 0.401728 0.20047 0.389388 
200 1 0.258478 0.582179 0.325629 
201 1 0.854691 0.378145 0.760406 
202 1 0.133513 0.0294169 0.786041 
203 1 0.398403 0.614965 0.0325175 
204 1 0.26996 0.795941 0.720074 
205 1 0.432317 0.0957228 0.57588 
206 1 0.0862932 0.125691 0.623114 
207 1 0.424553 0.913394 0.0663563 
208 1 0.482249 0.276221 0.586842 
209 1 0.606943 0.833299 0.755356 
210 1 0.81485 0.611159 0.246328 
211 1 0.632368 0.449027 0.3723 
212 1 0.725161 0.0221483 0.900793 
213 1 0.822785 0.271811 0.98311 
214 1 0.980061 0.0800229 0.884925 
215 1 0.47911 0.296509 0.870078 
216 1 0.616251 0.589442 0.537297 
217 1 0.748971 0.816029 0.602696 
218 1 0.847177 0.748167 0.0440998 
219 1 0.536639 0.369243 0.413129 
220 1 0.744581 0.0552139 0.130374 
221 1 0.0533765 0.0491952 0.521545 
222 1 0.640316 0.130475 0.684006 
223 1 0.59139 0.944032 0.682302 
224 1 0.229731 0.162781 0.622207 
225 1 0.0502205 0.999861 0.0606569 
226 1 0.0500605 0.222516 0.116193 
227 1 0.768907 0.691594 0.621193 
228 1 0.247534 0.676806 0.430589 
229 1 0.723272 0.685043 0.862291 
230 1 0.963525 0.759236 0.989389 
231 1 0.136954 0.947226 0.513884 
232 1 0.983969 0.196988 0.608161 
233 1 0.0515788 0.528157 0.267209 
234 1 0.86869 0.474262 0.971876 
235 1 0.615664 0.736704 0.839809 
236 1 0.186295 0.385843 0.801141 
237 1 0.033284 0.846931 0.831416 
238 1 0.678748 0.0342478 0.0336569 
239 1 0.953423 0.0284003 0.429798 
240 1 0.267366 0.243671 0.544066 
241 1 0.624262 0.836453 0.192181 
242 1 0.254287 0.0484862 0.40062 
243 1 0.349127 0.730272 0.482479 
244 1 0.464989 0.986603 0.654233 
245 1 0.762976 0.175839 0.309053 
246 1 0.115397 0.121195 0.8798 
247 1 0.344521 0.300352 0.936836 
248 1 0.879415 0.346308 0.24471 
249 1 0.454999 0.114662 0.184267 
250 1 0.399888 0.773832 0.683949 
251 1 0.766161 0.309657 0.699851 
252 1 0.72429 0.361032 0.601975 
253 1 0.937575 0.619287 0.435612 
254 1 0.851344 0.516183 0.744156 
255 1 0.4859 0.906093 0.456738 
256 1 0.218566 0.0773772 0.145786 
257 1 0.299575 0.19324 0.736118 
258 1 0.334286 0.724188 0.0925415 
259 1 0.69942 0.020402 0.705375 
260 1 0.518378 0.929721 0.153434 
261 1 0.586053 0.851004 0.885959 
262 1 0.637298 0.0742377 0.832446 
263 1 0.599413 0.298995 0.847887 
264 1 0.456474 0.275924 0.000976479 
265 1 0.0792608 0.345997 0.468758 
266 1 0.892983 0.358752 0.0180772 
267 1 0.489867 0.322296 0.234968 
268 1 0.570162 0.615938 0.207599 
269 1 0.766558 0.190109 0.672165 
270 1 0.473826 0.651262 0.849905 
271 1 0.52428 0.209062 0.204165 
272 1 0.648976 0.649071 0.642499 
273 1 0.251037 0.937224 0.206374 
274 1 0.551805 0.551534 0.872068 
275 1 0.238057 0.376978 0.181604 
276 1 0.00121337 0.435264 0.468067 
277 1 0.651089 0.164949 0.0636346 
278 1 0.0323364 0.975836 0.810863 
279 1 0.240949 0.461403 0.268952 
280 1 0.819703 0.0690312 0.6715 
281 1 0.387255 0.818739 0.894645 
282 1 0.776986 0.258629 0.577787 
283 1 0.145147 0.828201 0.939089 
284 1 0.949971 0.119414 0.504487 
285 1 0.305927 0.0660902 0.785332 
286 1 0.284619 0.171935 0.436752 
287 1 0.0445381 0.650474 0.250002 
288 1 0.200895 0.564381 0.0680172 
289 1 0.379383 0.0967228 0.864263 
290 1 0.83472 0.711559 0.925225 
291 1 0.220462 0.937743 0.951779 
292 1 0.572578 0.282661 0.492857 
293 1 0.202308 0.735013 0.653344 
294 1 0.126604 0.874363 0.40348 
295 1 0.888487 0.903949 0.424028 
296 1 0.835903 0.768333 0.542582 
297 1 0.309921 0.0633496 0.968471 
298 1 0.432791 0.671286 0.731677 
299 1 0.498241 0.0221088 0.487324 
300 1 0.420929 0.412463 0.432435 
301 1 0.312766 0.536542 0.00881481 
302 1 0.757697 0.866034 0.197627 
303 1 0.741805 0.590052 0.554159 
304 1 0.581623 0.977192 0.915721 
305 1 0.0846584 0.0331258 0.286265 
306 1 0.0198017 0.205159 0.884865 
307 1 0.598513 0.951184 0.495502 
308 1 0.0206307 0.629556 0.99001 
309 1 0.596327 0.921386 0.372981 
310 1 0.363227 0.570941 0.689065 
311 1 0.219593 0.304047 0.924543 
312 1 0.306261 0.115807 0.541085 
313 1 0.381964 0.861984 0.777657 
314 1 0.267035 0.653017 0.0131494 
315 1 0.795542 0.0427829 0.00892254 
316 1 0.805478 0.902132 0.514904 
317 1 0.888323 0.232568 0.280828 
318 1 0.727211 0.484311 0.188601 
319 1 0.968179 0.522542 0.0448089 
320 1 0.304906 0.777791 0.357575 
321 1 0.631596 0.407863 0.511661 
322 1 0.892485 0.62398 0.0143252 
323 1 0.99986 0.942542 0.338686 
324 1 0.751557 0.119356 0.794121 
325 1 0.280046 0.97791 0.0798101 
326 1 0.697649 0.714568 0.509009 
327 1 0.0696858 0.630082 0.118495 
328 1 0.379055 0.391839 0.175818 
329 1 0.482856 0.651874 0.473123 
330 1 0.936264 0.421255 0.124066 
331 1 0.439589 0.0423778 0.979668 
332 1 0.731404 0.814267 0.850271 
333 1 0.577645 0.799142 0.440422 
334 1 0.300125 0.417844 0.88474 
335 1 0.25798 0.637112 0.566656 
336 1 0.79019 0.177351 0.0835787 
337 1 0.163455 0.159044 0.352777 
338 1 0.379718 0.648324 0.351527 
339 1 0.263749 0.96854 0.508495 
340 1 0.57216 0.29752 0.101083 
341 1 0.935682 0.579852 0.179409 
342 1 0.235159 0.819921 0.462959 
343 1 0.189406 0.364247 0.540354 
344 1 0.49923 0.293748 0.720348 
345 1 0.903937 0.812509 0.149112 
346 1 0.114856 0.410527 0.238004 
347 1 0.493277 0.937038 0.791842 
348 1 0.265036 0.830033 0.860367 
349 1 0.635529 0.421607 0.901576 
350 1 0.84999 0.477392 0.248653 
351 1 0.358513 0.351001 0.572964 
352 1 0.959912 0.583111 0.774565 
353 1 0.983306 0.294714 0.771571 
354 1 0.610323 0.819963 0.610931 
355 1 0.457042 0.789909 0.56389 
356 1 0.47162 0.402489 0.0611484 
357 1 0.489847 0.781027 0.79687 
358 1 0.0954985 0.503852 0.995924 
359 1 0.230762 0.509287 0.762514 
360 1 0.382871 0.224117 0.241566 
361 1 0.523525 0.861818 0.273229 
362 1 0.137538 0.796847 0.77211 
363 1 0.664174 0.514701 0.633853 
364 1 0.190685 0.124541 0.743277 
365 1 0.0452846 0.317987 0.60996 
366 1 0.332218 0.0651346 0.21311 
367 1 0.53924 0.698846 0.314811 
368 1 0.957436 0.0575644 0.62362 
369 1 0.742083 0.382668 0.286837 
370 1 0.246858 0.583717 0.903343 
371 1 0.250834 0.79528 0.00610238 
372 1 0.345377 0.965781 0.863545 
373 1 0.0378807 0.215363 0.480443 
374 1 0.173677 0.828104 0.172277 
375 1 0.590709 0.0558852 0.392277 
376 1 0.385862 0.0710837 0.442227 
377 1 0.435325 0.639679 0.181027 
378 1 0.0215025 0.550248 0.546783 
379 1 0.589182 0.0756558 0.14925 
380 1 0.711509 0.53341 0.443126 
381 1 0.675992 0.284582 0.99065 
382 1 0.789485 0.28234 0.37396 
383 1 0.717043 0.957043 0.408899 
384 1 0.837263 0.578912 0.882163 
385 1 0.848942 0.940679 0.637044 
386 1 0.77958 0.377003 0.106505 
387 1 0.91064 0.0397716 0.776353 
388 1 0.751031 0.149876 0.944411 
389 1 0.225419 0.287672 0.680971 
390 1 0.897468 0.812506 0.874767 
391 1 0.178798 0.565014 0.206702 
392 1 0.770807 0.45156 0.837021 
393 1 0.0183503 0.297995 0.227533 
394 1 0.810546 0.932328 0.0787649 
395 1 0.84432 0.357827 0.498069 
396 1 0.0528589 0.360259 0.0648106 
397 1 0.228535 0.670735 0.787353 
398 1 0.0921218 0.754015 0.0484384 
399 1 0.132738 0.25751 0.834643 
400 1 0.70358 0.0577641 0.273487 
401 2 0.374169 0.200793 0.635199 
402 2 0.823952 0.0373443 0.508575 
403 2 0.944953 0.846224 0.550028 
404 2 0.279199 0.692636 0.230277 
405 2 0.477867 0.106532 0.31818 
406 2 0.696282 0.961515 0.596398 
407 2 0.478554 0.904273 0.937155 
408 2 0.385524 0.226164 0.821712 
409 2 0.908398 0.81905 0.312728 
410 2 0.464909 0.438717 0.309234 
411 2 0.0672017 0.730205 0.893881 
412 2 0.429062 0.431438 0.676925 
413 2 0.134752 0.983252 0.17159 
414 2 0.0208599 0.891144 0.963326 
415 2 0.973773 0.735106 0.760632 
416 2 0.792436 0.749295 0.24183 
417 2 0.165151 0.0154175 0.62928 
418 2 0.748194 0.292689 0.846881 
419 2 0.651886 0.947828 0.80836 
420 2 0.413428 0.532199 0.921036 
421 2 0.0912512 0.00664237 0.933473 
422 2 0.899331 0.260552 0.133117 
423 2 0.788159 0.803828 0.407165 
424 2 0.361535 0.691897 0.930381 
425 2 0.899086 0.288173 0.637305 
426 2 0.519405 0.153091 0.491329 
427 2 0.222176 0.347947 0.0507556 
428 2 0.245971 0.528824 0.444721 
429 2 0.506139 0.430344 0.822531 
430 2 0.693232 0.738431 0.721543 
431 2 0.530213 0.510259 0.439028 
432 2 0.737169 0.645804 0.00205447 
433 2 0.946315 0.325651 0.371722 
434 2 0.850577 0.11879 0.218062 
435 2 0.928985 0.0151215 0.993424 
436 2 0.416035 0.507105 0.54537 
437 2 0.8084 0.535431 0.0962181 
438 2 0.312901 0.0504839 0.648944 
439 2 0.803763 0.936637 0.797598 
440 2 0.84638 0.00480903 0.339304 
441 2 0.0661695 0.791951 0.29084 
442 2 0.34412 0.890165 0.644002 
443 2 0.529065 0.250123 0.346098 
444 2 0.583668 0.620076 0.765561 
445 2 0.251846 0.165902 0.883042 
446 2 0.681954 0.913163 0.973929 
447 2 0.873936 0.507455 0.492011 
448 2 0.429544 0.10328 0.740525 
449 2 0.836472 0.802324 0.702789 
450 2 0.430903 0.797722 0.391969 
451 2 0.561871 0.83532 0.0676028 
452 2 0.667687 0.80717 0.322003 
453 2 0.653147 0.186392 0.409073 
454 2 0.984739 0.0262622 0.18874 
455 2 0.581934 0.0563776 0.595983 
456 2 0.637898 0.364919 0.742145 
457 2 0.900034 0.344771 0.885956 
458 2 0.0287198 0.707687 0.503643 
459 2 0.236239 0.945394 0.755911 
460 2 0.520226 0.749299 0.944687 
461 2 0.605775 0.488277 0.241036 
462 2 0.188701 0.0853147 0.00935761 
463 2 0.114887 0.222688 0.992616 
464 2 0.880679 0.150134 0.392033 
465 2 0.0956884 0.590291 0.85927 
466 2 0.194658 0.373865 0.376854 
467 2 0.350671 0.531653 0.24485 
468 2 0.502142 0.60737 0.630507 
469 2 0.885874 0.1852 0.858572 
470 2 0.717593 0.659858 0.350714 
471 2 0.255047 0.910182 0.348186 
472 2 0.0471404 0.564814 0.389311 
473 2 0.198325 0.862169 0.614932 
474 2 0.492472 0.159096 0.0598929 
475 2 0.151812 0.652465 0.333522 
476 2 0.171078 0.1211 0.509219 
477 2 0.314979 0.298484 0.427326 
478 2 0.280144 0.480139 0.608257 
479 2 0.658777 0.949316 0.135262 
480 2 0.069083 0.779131 0.642066 
481 2 0.638159 0.441248 0.0541419 
482 2 0.965019 0.238286 0.000768093 
483 2 0.968959 0.435201 0.704821 
484 2 0.627341 0.261954 0.628987 
485 2 0.969132 0.897257 0.715974 
486 2 0.653509 0.256088 0.250085 
487 2 0.0256056 0.137337 0.761855 
488 2 0.102725 0.153291 0.224176 
489 2 0.335951 0.14799 0.091149 
490 2 0.0899197 0.53237 0.700769 
491 2 0.523949 0.557329 0.0783029 
492 2 0.422487 0.809622 0.152345 
493 2 0.725667 0.795948 0.0865825 
494 2 0.131787 0.00867577 0.40508 
495 2 0.549313 0.177979 0.78493 
496 2 0.593281 0.0997305 0.959003 
497 2 0.0489271 0.434643 0.838838 
498 2 0.741784 0.593561 0.749581 
499 2 0.892325 0.648509 0.559031 
500 2 0.602502 0.687724 0.0774323 
